UBYTE myData[] =
{
	0x00,0x40,0x00,0x40,0x00,0x40,0x00,0xa0,
	0x02,0xe0,0x03,0xf0,0x03,0xf0,0x0c,0x08,
	0x17,0x98,0x07,0xe4,0x17,0xfc,0x18,0x00,
	0x10,0xe0,0x0b,0x04,0x1b,0xfc,0x1c,0x00,
	0x0f,0xe8,0x0c,0x04,0x0f,0xfc,0x0c,0x00,
	0x0d,0xfc,0x0e,0x00,0x0f,0xfc,0x0c,0x00,
	0x0d,0xf8,0x0c,0x04,0x0d,0xfc,0x0e,0x00,
	0x0e,0xa8,0x0d,0x54,0x0d,0xfc,0x0e,0x00,
	0x06,0x14,0x0f,0xe8,0x0d,0xfc,0x0e,0x00,
	0x04,0x84,0x05,0x7c,0x07,0xfc,0x06,0x00,
	0x00,0x00,0x03,0xe0,0x03,0xe0,0x02,0x00,
	0x02,0x00,0x01,0x00,0x03,0x00,0x02,0x80,
};
